<?xml version="1.0"?>
<VTKFile type="ImageData" version="0.1" byte_order="LittleEndian">
  <ImageData WholeExtent="0 75 0 48 0 44" Origin="100 80 1" Spacing="1 1 1">
    <Piece Extent="0 75 0 48 0 44">
      <PointData Scalars="scalars">
        <DataArray type="Float32" Name="scalars" format="ascii">57 50 43 42 46 51 49 47 47 46 45 46 51 57 53 42 39 46 52 53 55 59 55 40 36 46 56 66 71 71 74 72 53 29 21 30 40 45 49 55 62 64 53 37 34 36 32 28 23 20 28 51 67 68 74 81 63 27 16 24 21 14 14 22 31 39 38 31 27 30 35 33 31 41 66 90 57 55 55 59 58 52 45 43 45 46 47 55 63 60 44 30 35 58 70 67 56 44 36 41 49 57 62 62 63 62 58 59 53 36 27 37 49 55 58 64 68 62 46 33 30 28 22 17 19 28 46 69 86 88 83 68 45 39 44 36 20 10 14 21 27 39 51 51 42 36 37 39 41 46 63 85 57 53 60 71 71 62 50 43 42 45 49 51 51 47 39 30 25 39 66 82 74 47 30 37 55 68 65 49 29 27 31 31 34 33 33 36 38 39 47 55 57 47 33 24 25 26 25 29 35 43 57 80 104 113 93 59 42 51 52 36 23 22 20 16 18 36 59 69 65 59 51 42 37 45 64 85 58 60 64 61 54 51 50 47 45 47 48 44 41 43 45 40 31 33 48 62 62 52 42 43 56 74 74 59 40 25 19 23 29 34 34 28 18 16 29 40 37 27 18 19 28 36 39 38 32 41 73 103 111 103 79 53 47 48 41 31 25 26 25 24 29 41 59 79 95 98 86 69 61 67 83 98 54 56 54 50 49 52 53 48 43 41 42 43 44 47 49 47 41 34 34 45 60 62 47 34 49 75 83 72 54 38 35 38 38 38 39 32 19 17 22 26 25 21 20 25 35 48 58 51 28 31 67 104 117 98 65 44 43 43 37 32 30 30 26 19 19 30 54 83 107 112 101 85 78 83 98 112 48 49 53 56 58 57 53 46 43 43 44 44 45 47 51 52 46 37 32 33 45 55 48 30 30 45 55 55 53 55 59 57 49 45 43 38 31 31 39 41 34 27 28 31 37 51 63 60 39 36 63 89 90 68 41 30 36 43 38 30 32 37 33 24 16 16 28 51 81 104 112 108 100 97 104 113 42 42 44 48 53 54 50 46 45 44 39 33 34 40 45 47 47 47 45 39 32 30 35 39 42 45 42 39 42 50 52 49 48 53 54 46 38 40 53 59 53 44 38 30 26 37 55 61 46 33 48 69 69 54 32 16 12 14 17 23 34 35 28 26 29 28 26 38 65 93 113 121 119 111 102 100 35 35 38 40 43 45 46 47 47 45 40 34 30 30 34 42 47 48 46 43 39 33 29 31 37 43 43 45 51 54 48 40 40 48 51 45 40 42 47 48 48 49 51 43 33 41 58 65 49 31 44 70 75 55 32 18 14 14 17 25 33 33 31 34 36 30 23 32 59 87 107 116 119 116 110 104 45 45 42 40 41 44 45 43 39 37 36 37 39 43 48 47 41 38 42 46 46 40 33 29 27 24 25 32 41 46 45 42 42 49 56 54 44 39 41 54 65 61 50 38 34 49 67 68 48 37 52 76 83 66 40 27 30 36 35 30 26 25 26 30 33 28 24 35 53 70 81 93 107 121 128 126 66 58 47 42 40 43 46 44 38 35 36 38 39 41 43 42 41 44 50 54 53 50 46 43 42 38 34 32 35 41 45 44 40 44 52 53 44 36 43 59 68 62 49 38 36 43 51 51 41 43 60 78 81 66 44 34 39 43 36 26 25 27 29 31 32 30 28 29 32 36 43 59 84 107 118 118 81 59 44 43 43 44 46 43 38 36 38 41 44 49 53 50 47 51 58 61 59 58 57 54 51 50 50 50 49 48 50 50 49 50 50 46 39 38 46 55 58 56 50 41 32 35 45 49 45 48 61 70 66 50 32 32 43 42 31 25 28 32 33 33 33 30 23 19 22 29 34 40 51 67 81 88 71 56 39 29 38 54 53 45 40 37 33 33 41 53 57 53 52 59 63 58 53 57 63 63 54 46 42 41 38 37 41 50 55 54 48 40 39 45 53 57 58 58 57 49 42 48 56 50 34 37 54 64 58 36 23 32 44 40 30 27 31 33 30 29 28 26 27 32 34 28 22 26 38 47 48 48 58 57 49 22 12 36 52 48 45 43 39 36 38 42 45 46 50 55 55 54 56 60 64 64 62 56 47 39 34 35 40 47 54 57 53 44 39 42 48 55 59 60 53 45 48 57 55 35 15 31 60 72 62 36 29 40 41 31 25 27 31 31 28 29 32 29 31 38 43 40 34 37 49 54 47 37 56 56 61 53 32 21 31 48 54 54 49 42 38 38 41 44 45 44 46 53 60 65 67 68 65 58 48 43 45 49 51 51 55 58 54 44 38 44 56 64 64 55 43 38 45 50 39 18 19 46 71 76 55 29 27 38 37 29 28 35 37 33 29 29 29 24 20 28 44 56 60 57 55 55 55 50 55 55 60 68 63 40 22 25 44 55 53 47 42 38 38 41 42 43 46 47 47 52 60 63 58 47 38 38 45 52 54 52 49 46 44 44 45 47 54 59 53 41 34 39 53 57 37 20 38 69 85 74 37 16 27 39 35 27 29 40 42 34 28 30 31 27 24 30 43 51 52 50 51 54 55 51 53 55 52 53 56 47 18 5 27 32 33 42 47 44 37 33 33 34 36 37 35 35 41 49 50 45 41 44 49 55 59 59 54 49 49 53 55 48 42 43 47 54 60 63 69 63 44 46 64 78 79 49 16 19 36 41 33 21 21 34 43 40 35 35 38 39 40 43 44 41 39 44 53 60 59 52 46 43 41 44 44 30 16 26 33 24 31 43 39 32 32 33 33 34 35 35 33 28 25 27 34 43 51 54 53 52 54 58 59 57 58 60 58 49 41 41 53 73 82 77 63 44 40 59 72 67 50 21 20 42 50 48 43 35 31 32 39 49 53 49 41 37 41 45 41 37 41 51 58 58 55 52 51 47 42 38 34 27 32 43 35 27 35 39 28 17 22 28 28 32 28 21 19 26 30 29 30 38 47 52 52 47 39 40 50 57 52 45 44 51 57 51 44 46 53 44 27 23 42 67 79 71 49 24 25 39 47 51 52 47 41 36 38 50 58 54 42 35 37 41 42 41 42 47 49 49 48 50 47 51 49 41 35 35 37 34 27 20 22 29 28 18 11 13 13 17 16 12 14 24 33 34 31 31 36 46 59 63 55 48 50 54 52 46 45 58 75 76 56 32 24 32 45 57 66 71 74 72 61 34 24 38 44 43 44 37 27 31 45 54 51 43 41 44 44 39 36 38 43 47 48 48 47 46 46 48 50 50 49 45 40 33 23 13 22 41 43 28 13 13 26 34 33 23 15 18 27 34 37 37 39 48 60 69 70 65 58 54 56 61 67 75 89 95 81 55 42 55 83 97 90 72 60 57 55 36 28 50 59 42 32 32 28 31 42 49 43 36 38 44 43 35 31 36 45 49 49 49 48 47 52 49 48 52 57 57 49 38 25 17 25 42 42 24 6 5 21 37 33 17 8 10 20 27 30 34 44 55 61 61 64 68 66 58 53 61 74 83 88 91 90 84 77 74 76 81 79 67 52 48 51 46 41 55 67 52 33 31 38 41 39 38 35 28 21 20 28 36 40 41 43 46 48 49 49 49 51 50 53 61 68 66 52 35 30 30 24 25 33 33 30 29 28 28 20 8 6 9 13 12 12 25 42 52 53 55 64 72 70 60 52 54 62 70 75 82 88 86 79 73 66 58 53 46 35 32 38 47 57 65 67 59 46 37 37 42 44 39 28 16 14 21 21 23 34 41 43 45 48 52 53 49 58 64 70 72 73 72 63 45 30 26 33 51 90 129 131 101 67 44 25 9 9 12 15 15 17 31 42 43 40 42 51 59 62 60 56 53 55 61 65 65 62 58 56 56 55 51 46 41 32 15 13 39 68 79 71 56 46 42 39 39 45 47 30 12 26 45 35 25 28 33 38 44 49 54 55 48 69 72 73 74 74 72 70 60 31 17 61 105 143 170 156 115 76 47 23 14 16 13 13 14 14 15 27 38 39 32 27 33 45 54 58 58 55 47 40 38 42 44 41 36 36 37 32 29 27 15 10 24 44 60 63 56 46 41 43 45 47 47 35 16 28 61 68 56 39 33 38 47 53 55 55 51 77 72 74 83 87 77 61 40 21 43 100 125 118 105 97 91 74 41 16 15 16 14 10 10 13 12 18 26 26 22 19 22 29 36 42 46 40 32 29 26 30 34 32 27 22 16 10 13 25 34 29 17 11 19 39 59 65 53 43 43 43 40 34 13 19 66 79 63 44 37 37 38 44 54 66 71 79 85 92 92 77 49 28 19 33 86 121 120 99 84 84 81 57 25 8 6 11 15 12 9 15 23 24 27 30 29 23 20 26 32 32 28 22 27 32 25 18 18 22 18 15 15 10 16 36 47 45 45 50 52 53 54 60 61 48 37 38 45 45 18 11 50 64 54 38 31 32 36 41 53 72 86 87 93 90 72 44 18 12 35 68 98 114 111 95 81 73 62 42 20 7 11 21 29 26 16 12 15 25 39 45 39 29 28 34 38 33 24 25 31 33 27 20 14 9 7 15 21 9 12 32 44 44 49 66 84 86 67 50 51 61 60 49 47 49 32 11 22 37 33 22 18 24 30 32 38 55 80 76 72 62 43 23 18 28 48 73 91 91 74 55 46 45 45 35 18 9 17 29 37 34 24 14 12 22 29 34 34 34 34 29 26 26 28 33 39 39 28 18 12 8 19 28 23 11 17 34 46 50 51 58 80 111 128 106 65 52 60 55 38 31 35 25 12 15 15 15 17 20 22 17 15 38 71 45 41 35 26 16 15 29 55 76 79 60 33 15 16 29 40 37 21 8 10 15 23 25 19 11 10 20 30 37 40 39 33 26 22 22 23 25 30 33 32 29 24 23 23 21 21 16 16 28 39 46 57 68 80 106 144 165 146 95 56 44 36 29 32 37 32 27 31 43 52 47 26 8 16 55 86 23 16 9 10 19 31 54 75 81 71 52 34 25 34 54 66 60 40 24 22 26 28 24 19 16 16 23 32 36 36 33 29 26 23 21 21 21 19 23 36 49 48 33 20 19 25 25 22 22 25 32 47 67 82 93 113 144 164 155 116 65 32 32 41 36 31 29 33 51 69 56 20 30 69 90 105 22 22 27 39 49 52 61 70 71 63 53 48 51 57 60 58 51 40 35 34 31 25 18 13 11 14 18 22 28 31 30 25 22 24 22 18 13 12 19 30 38 36 28 24 29 38 44 39 28 27 39 51 60 71 81 87 98 126 164 177 134 53 15 37 47 31 21 33 53 59 34 27 89 118 123 111 47 43 43 48 51 45 40 41 46 50 51 49 44 34 25 25 25 23 30 33 26 22 25 24 19 15 15 20 27 30 29 25 25 27 26 20 11 10 19 30 36 35 29 24 23 30 36 35 31 36 47 55 53 49 55 71 87 106 141 174 171 122 42 10 40 32 21 37 41 37 39 73 120 139 125 101 62 49 44 37 26 21 29 41 44 40 34 31 27 22 28 41 40 32 34 36 33 31 29 27 19 11 9 20 26 22 18 18 20 21 21 18 17 17 26 38 40 30 22 24 31 34 33 35 42 47 49 49 47 43 45 58 76 93 117 153 181 167 99 27 23 37 28 49 64 56 47 55 84 114 113 92 55 60 56 41 28 26 33 38 35 31 30 38 47 47 39 32 33 38 48 51 47 37 25 20 19 17 20 25 29 31 30 31 31 26 21 17 16 17 23 33 37 32 27 25 28 33 39 47 55 61 62 53 35 21 28 47 62 76 98 133 161 153 103 39 21 36 31 38 50 53 46 33 37 71 95 87 48 56 53 45 38 31 25 21 21 26 35 45 47 38 25 22 31 39 48 54 50 40 28 19 17 17 16 18 31 44 49 48 45 41 39 36 32 31 31 30 25 22 27 32 35 37 44 56 64 63 56 46 33 12 20 50 63 60 63 87 121 132 104 57 40 53 49 35 26 25 33 39 32 30 53 62 47 52 55 57 52 38 24 18 20 25 28 27 26 28 35 42 40 35 34 34 32 27 22 20 21 27 32 39 46 48 45 41 41 43 43 39 39 42 39 30 21 20 25 29 31 34 39 48 53 48 39 35 35 36 41 53 59 55 51 53 67 86 87 63 52 79 92 70 32 7 10 26 46 50 48 50 56 49 36 28 25 25 23 22 22 20 15 14 28 43 44 36 29 25 28 29 25 21 23 31 37 45 48 44 37 33 33 37 41 45 45 37 33 40 45 42 37 32 29 31 35 38 36 39 46 45 37 33 34 33 27 27 34 44 49 45 43 52 58 46 42 80 122 125 82 33 16 22 42 51 49 45 44 38 29 23 25 33 37 38 38 32 18 11 21 32 36 37 37 38 38 33 29 31 41 52 56 51 40 33 39 52 64 72 80 95 113 122 110 83 66 62 55 44 40 44 43 36 34 42 52 46 26 20 34 47 42 26 20 31 44 45 34 26 28 30 36 71 124 157 153 115 58 21 27 39 44 41 33 34 34 31 32 35 38 41 43 40 30 17 15 24 33 37 37 38 43 48 49 49 51 51 47 39 34 39 48 56 65 68 63 62 87 134 169 157 106 68 57 53 53 55 49 36 23 26 39 48 51 46 44 47 45 37 32 33 40 48 44 22 14 28 41 53 82 125 166 178 150 98 48 17 18 32 36 36 39 39 36 35 40 43 43 40 36 32 30 30 31 31 30 34 46 66 77 75 65 55 47 44 56 71 73 65 62 66 66 64 77 120 167 176 136 82 63 68 66 61 62 67 63 53 48 50 50 45 41 39 39 39 45 49 45 44 48 39 18 17 45 73 84 88 107 143 166 146 91 53 47 44 43 47 48 46 41 37 37 42 45 42 41 45 45 38 24 13 15 39 59 74 84 83 71 59 58 69 78 78 73 68 64 61 61 70 92 124 153 160 143 108 75 70 80 87 86 80 70 58 49 47 51 56 59 59 54 49 46 43 39 40 53 63 45 17 29 62 88 131 149 120 104 102 71 69 99 86 43 43 43 42 40 38 39 44 47 44 41 43 45 34 13 8 26 45 68 82 86 83 79 78 80 80 79 78 79 78 74 68 61 62 79 113 143 156 151 129 101 90 97 103 97 82 63 50 47 49 48 42 36 34 39 44 48 51 48 38 36 42 42 32 13 23 92 140 106 49 94 152 145 123 94 51 38 37 38 38 38 39 42 42 41 43 51 59 56 33 12 29 53 73 95 103 95 86 88 92 90 87 90 94 93 86 80 79 79 74 67 79 106 128 135 126 108 93 93 101 103 92 73 56 47 42 40 41 39 34 31 33 39 43 44 42 38 33 33 43 54 47 45 63 38 22 97 140 136 111 81 45 38 42 43 42 41 39 37 36 37 42 49 55 49 30 30 59 82 100 107 102 96 97 98 94 92 94 95 94 92 90 88 89 91 89 77 68 76 93 102 101 97 100 109 117 118 111 95 72 49 31 24 27 31 34 34 34 33 33 38 43 40 31 27 35 52 64 56 29 13 32 67 98 108 92 65 40 44 44 43 42 38 31 28 32 38 42 46 51 45 37 55 85 104 114 111 103 103 106 103 94 89 90 93 91 85 80 80 86 95 97 91 77 65 65 68 70 73 87 111 138 154 153 134 100 65 41 29 25 28 28 27 31 34 36 41 44 42 39 38 39 43 48 51 48 39 38 50 64 78 81 71 54 42 44 41 37 35 37 40 42 43 46 49 43 35 49 77 99 114 117 112 108 108 106 100 96 93 90 89 90 91 88 82 81 86 91 94 92 88 84 83 83 80 80 94 126 164 183 170 130 81 41 19 17 23 17 8 17 36 44 38 34 41 48 45 38 40 48 50 44 37 35 41 54 71 82 78 63 39 38 38 38 37 40 45 51 53 49 38 38 64 93 105 107 109 112 113 111 105 96 91 91 90 87 85 87 89 89 87 88 91 96 100 99 95 88 85 86 88 86 84 98 132 169 177 148 96 50 17 12 20 16 11 11 23 37 38 37 41 46 44 42 45 51 52 47 42 41 43 49 59 65 62 51 47 48 42 34 31 36 46 56 58 44 37 62 93 107 108 105 104 106 105 98 92 90 94 97 99 98 96 95 93 91 89 90 91 91 91 91 92 91 88 86 88 87 80 78 101 142 170 161 119 72 37 13 10 20 24 23 29 40 42 38 38 45 51 52 51 52 51 46 41 43 47 50 51 52 51 43 44 38 35 38 43 49 56 57 47 44 64 93 114 122 118 111 109 108 106 101 96 93 92 94 96 95 93 92 94 95 94 93 93 92 89 87 88 91 91 88 86 85 83 82 92 122 152 154 126 86 53 19 10 26 33 31 29 30 30 29 37 51 57 53 47 46 46 43 42 48 60 64 60 50 42 48 44 42 40 44 49 47 40 37 40 43 44 43 40 35 28 22 23 33 46 51 52 54 44 20 15 20 11 6 21 46 62 57 38 20 18 18 17 24 36 45 50 46 32 21 21 29 42 55 62 59 54 56 61 68 72 65 46 25 14 12 11 10 17 31 30 20 20 30 34 31 30 33 38 54 81 97 54 48 45 48 51 46 41 42 41 35 30 35 42 39 27 20 23 31 37 39 40 36 25 21 39 61 60 42 32 40 46 40 28 21 17 17 19 28 44 55 53 43 33 29 26 24 27 33 34 34 39 52 58 54 53 41 23 26 39 38 23 9 12 23 23 16 20 38 53 54 43 32 32 49 72 88 53 48 46 44 41 41 42 40 36 31 31 36 42 39 29 18 17 30 44 49 42 28 20 28 49 67 70 55 34 29 31 26 20 19 20 24 26 28 37 48 49 40 31 24 14 7 9 15 15 12 23 47 66 72 66 49 41 47 48 35 20 17 18 13 8 9 23 47 68 73 61 46 45 57 73 85 44 52 51 41 33 34 36 34 29 25 25 28 34 38 37 29 20 18 27 37 40 37 33 36 47 62 66 56 39 29 28 23 15 13 19 22 18 17 24 36 37 28 22 17 14 18 25 28 23 8 17 50 76 80 65 44 33 35 35 27 17 15 18 20 13 8 19 44 73 90 86 72 65 70 82 89 46 46 41 36 37 39 40 38 34 29 26 28 33 38 39 35 27 19 16 18 22 31 37 37 40 45 47 43 38 37 39 35 24 18 22 22 14 13 17 27 33 29 26 23 25 34 44 48 36 17 26 57 84 91 72 44 33 31 26 18 15 17 16 18 17 10 14 34 64 90 94 83 73 78 90 94 34 30 32 38 42 43 40 37 36 38 39 40 40 43 42 35 25 21 20 20 19 18 22 27 29 29 29 32 36 43 51 54 47 33 23 26 26 25 29 34 37 37 37 34 33 39 51 55 43 30 44 68 77 70 56 46 42 33 19 8 10 16 12 12 18 17 13 17 35 62 83 91 88 84 91 106 41 41 40 39 37 34 30 28 30 34 36 37 36 35 33 32 30 27 23 24 28 29 28 28 30 34 38 39 36 36 40 43 43 36 25 17 15 22 35 41 42 42 41 36 30 35 47 51 43 34 39 53 60 60 52 27 23 35 26 16 19 20 24 33 37 31 20 15 21 38 59 80 94 101 106 116 53 48 39 32 29 29 26 21 18 24 33 38 37 36 38 40 38 35 37 42 46 44 39 36 36 36 36 33 23 21 29 38 47 51 43 29 20 22 33 39 38 36 37 39 45 54 62 57 38 21 24 41 58 65 53 20 13 26 21 15 17 23 33 39 36 27 18 15 20 25 31 44 66 92 109 112 70 64 46 32 27 25 25 27 25 23 27 35 42 44 42 37 35 37 42 46 47 43 40 41 40 33 26 25 28 33 36 37 39 42 41 37 33 32 35 38 38 39 38 38 46 53 50 38 24 21 31 46 54 53 44 28 15 10 5 7 16 27 37 38 28 18 14 20 29 26 15 18 36 60 80 84 100 87 61 37 30 34 36 37 34 26 24 29 35 38 37 34 32 34 42 49 52 50 49 52 54 50 43 40 43 46 43 37 34 34 35 33 29 25 28 33 38 42 40 35 34 31 29 34 40 40 36 35 36 35 30 23 16 9 7 14 26 31 25 16 11 12 18 27 35 38 31 20 17 29 47 53 99 91 81 56 32 37 50 43 34 28 24 21 23 28 32 35 37 39 43 46 48 49 49 50 52 53 49 44 41 42 41 38 35 37 41 42 39 35 34 33 32 35 40 40 32 24 30 45 51 43 35 35 39 37 28 22 22 23 20 21 27 30 21 10 8 12 21 30 34 38 36 26 19 18 23 32 80 84 86 68 34 16 25 36 40 43 43 36 28 26 30 37 42 46 48 51 52 50 49 49 50 48 46 45 45 44 41 37 36 38 39 39 40 43 44 39 34 36 42 45 40 38 45 48 41 34 35 42 47 44 35 30 28 25 24 23 24 23 22 21 21 20 22 26 31 30 24 24 31 29 18 15 71 75 77 71 53 31 18 15 27 46 51 44 32 28 33 39 42 42 44 47 52 53 52 48 41 34 31 32 37 43 45 45 45 46 45 42 41 44 45 44 43 47 51 47 43 46 51 46 33 30 37 41 39 34 36 43 42 31 23 20 19 20 26 32 33 28 24 22 25 26 27 32 39 41 34 29 70 74 81 80 70 57 43 24 11 25 46 44 33 27 31 36 38 38 37 38 42 48 48 42 34 29 29 29 33 41 48 50 49 48 47 43 39 37 37 40 43 42 38 35 39 44 41 24 22 38 48 44 34 28 33 43 43 35 27 23 20 22 29 35 34 24 16 15 17 24 35 44 45 42 41 49 60 65 75 79 74 65 56 39 18 18 28 26 28 32 35 36 34 29 28 30 33 37 40 38 34 33 32 32 33 35 37 40 44 49 50 44 36 29 31 41 47 40 23 19 30 39 32 12 19 42 53 48 32 25 32 37 32 23 17 17 15 15 23 34 37 30 23 20 21 24 30 37 42 42 43 46 62 60 67 77 78 63 47 39 39 33 15 8 22 32 34 29 21 17 23 29 28 24 24 28 35 36 35 36 35 35 39 44 47 49 51 49 40 30 31 43 47 36 26 28 37 42 32 12 23 44 49 43 31 27 31 32 27 19 15 16 17 17 20 28 35 37 36 33 29 26 26 29 36 42 44 39 61 59 63 70 69 58 49 50 49 35 13 9 25 31 32 25 17 16 24 29 23 18 16 18 22 24 28 36 44 49 51 51 47 46 48 49 45 42 45 49 45 42 49 56 52 29 16 16 36 53 46 31 22 22 27 28 23 19 17 19 27 34 33 29 29 31 32 32 29 26 27 30 34 39 40 36 53 58 62 62 62 63 62 54 43 37 31 24 20 18 20 25 24 20 17 15 17 22 27 23 16 13 16 26 39 55 61 55 44 39 39 44 52 59 61 58 53 48 46 44 21 12 26 44 61 69 56 30 11 8 20 29 24 17 15 19 28 39 44 38 30 27 29 31 28 25 28 33 35 35 37 40 64 66 64 63 67 71 64 48 40 46 49 31 15 15 11 21 23 18 17 15 18 26 28 28 31 29 25 24 34 51 60 57 53 54 55 56 61 68 74 76 71 50 23 20 17 36 62 66 61 59 54 32 12 13 19 24 25 21 21 29 37 39 33 27 25 28 32 33 32 30 30 29 29 31 35 41 67 62 59 64 73 75 64 50 41 38 30 17 20 19 12 25 23 29 37 30 19 15 23 31 36 34 27 23 36 54 66 69 66 64 66 69 68 66 69 74 71 55 42 50 66 75 75 62 44 36 37 22 13 25 21 19 28 22 13 21 34 38 32 26 27 31 31 30 32 35 33 28 29 35 38 39 72 71 71 71 73 71 62 50 43 42 30 19 27 17 1 6 14 29 32 21 12 11 21 22 18 18 19 22 35 48 58 62 58 51 48 53 58 54 49 49 52 57 66 75 80 82 75 56 36 27 22 13 21 39 34 20 17 14 10 14 21 25 27 27 25 21 20 22 27 34 37 37 40 46 47 43 79 86 87 81 74 69 67 59 51 51 37 20 42 68 70 59 48 35 20 8 7 12 12 13 17 22 22 21 27 35 40 44 48 51 49 46 46 48 49 47 45 48 55 66 72 70 64 51 32 17 14 20 31 44 47 33 19 17 20 22 24 19 11 18 27 19 10 11 16 24 29 31 36 45 49 46 75 83 88 84 79 80 82 77 66 45 20 28 85 155 190 164 103 55 32 14 5 6 8 19 24 21 19 18 21 27 32 36 42 45 45 40 37 41 46 47 42 36 38 46 48 41 39 45 40 17 12 25 31 39 49 50 41 29 25 30 36 28 14 33 62 58 37 18 8 9 20 29 33 37 45 54 84 91 87 82 86 94 92 80 55 27 36 85 133 173 186 156 104 64 37 14 9 11 12 14 13 9 15 28 30 18 10 14 29 38 36 29 28 31 30 29 31 32 26 23 25 24 22 35 43 29 14 15 21 21 24 35 44 42 37 36 35 25 16 36 72 90 87 70 45 31 35 37 38 44 58 72 91 92 89 92 98 95 77 51 24 24 80 142 164 150 130 115 102 73 34 13 16 22 16 8 11 14 17 27 27 15 13 18 26 30 31 29 28 26 22 18 15 14 11 13 24 29 24 29 41 47 44 45 52 45 28 25 33 37 30 24 26 26 17 20 49 75 86 80 66 53 46 44 43 51 63 78 85 83 88 94 89 72 48 24 19 49 99 144 157 139 116 100 83 56 30 17 16 21 17 9 12 14 10 9 11 16 26 25 18 18 22 26 22 18 18 16 11 7 6 8 16 21 15 21 44 61 69 86 117 142 139 99 54 31 28 30 33 37 29 16 31 56 63 57 35 25 48 57 55 60 71 82 77 75 79 77 66 53 42 33 35 59 91 110 107 91 78 73 66 52 35 23 21 24 22 15 13 12 8 6 12 18 19 16 16 21 22 19 16 18 19 14 9 9 9 10 15 16 8 21 44 58 66 80 112 163 208 207 154 93 62 54 46 42 39 23 20 45 63 60 33 27 68 72 58 62 73 82 68 68 71 68 60 48 38 35 43 60 74 75 63 49 45 49 51 42 31 27 33 36 28 15 8 11 11 9 14 16 18 18 15 12 11 12 17 27 27 15 10 14 13 8 7 6 17 35 45 46 52 73 101 134 181 223 225 180 121 79 59 46 41 31 23 44 65 63 68 82 76 57 47 62 76 87 55 56 62 63 55 45 42 44 48 54 56 54 45 38 44 55 55 45 34 31 34 34 25 13 4 13 19 17 18 25 26 14 10 8 5 12 20 27 30 26 17 13 13 11 12 18 25 29 38 44 41 54 91 123 141 166 204 226 207 149 87 46 29 23 24 42 60 65 80 97 84 52 43 66 83 95 45 49 54 54 53 54 47 43 53 56 50 46 45 50 61 68 64 55 46 37 28 23 22 19 13 11 12 22 26 25 20 15 23 20 4 6 15 24 25 23 21 18 14 11 15 26 32 31 32 38 40 41 62 105 136 142 148 176 206 204 156 86 30 9 15 28 33 40 55 69 60 40 55 84 97 105 35 40 45 44 44 42 23 15 37 45 39 36 35 35 41 47 43 41 44 34 19 15 21 22 18 10 7 15 15 8 6 16 23 19 9 4 5 10 14 19 27 32 23 12 7 16 31 38 37 41 51 55 52 64 100 132 136 135 160 197 204 158 86 26 8 21 25 30 48 54 35 32 75 108 117 114 14 9 14 18 21 21 13 14 28 29 26 27 23 18 34 50 38 29 38 29 18 27 31 25 17 11 10 10 13 14 16 16 13 11 12 10 10 10 19 27 30 28 21 11 9 20 34 36 39 51 59 57 52 46 60 100 135 146 150 167 193 197 159 86 23 16 31 34 43 36 25 50 92 121 138 136 20 16 19 18 19 21 21 29 31 25 22 24 25 30 51 59 44 24 21 17 19 33 36 28 12 10 12 12 22 22 16 15 17 16 14 15 17 21 32 38 32 20 12 11 22 29 24 24 48 68 65 57 60 61 49 56 97 141 158 154 160 177 171 121 64 40 36 34 26 16 26 55 84 110 134 148 42 44 44 37 30 25 30 35 34 35 37 38 36 33 39 38 28 26 26 24 32 37 30 17 6 15 11 12 25 27 25 25 28 29 25 19 13 16 25 33 33 19 13 19 29 31 27 39 58 67 63 50 41 45 47 45 60 101 139 156 153 146 139 125 98 64 54 61 36 9 12 28 57 102 139 151 35 46 48 44 43 43 36 28 23 19 20 22 21 20 27 33 32 28 30 36 39 28 13 7 15 19 15 22 30 34 35 34 35 33 28 23 23 26 28 25 16 7 10 14 21 30 38 49 53 51 47 34 22 27 38 49 56 69 98 124 134 131 125 118 108 104 106 90 52 19 14 29 24 36 62 71 39 46 49 46 42 38 32 25 17 13 16 21 21 21 25 28 30 30 34 41 39 26 21 21 22 36 39 31 28 32 37 40 41 39 38 39 41 42 39 30 19 15 17 19 25 31 31 31 27 19 19 20 21 26 34 40 45 44 47 66 93 111 112 109 116 131 141 134 105 50 12 27 23 17 35 40 23 31 39 40 34 26 24 24 24 25 25 21 17 26 41 49 46 34 18 14 18 17 21 29 36 38 38 38 41 45 49 57 74 99 123 130 110 74 44 31 29 29 32 34 37 40 37 31 25 16 10 20 30 30 34 37 34 30 28 36 53 77 97 104 108 132 175 201 186 132 61 14 11 11 32 40 29 35 37 33 27 25 27 32 34 31 24 13 10 30 43 45 40 29 20 16 18 26 34 38 39 40 42 48 58 69 70 62 65 99 156 195 184 132 81 53 46 52 51 38 21 14 25 35 31 28 28 24 21 20 22 26 35 46 49 41 31 45 72 84 86 109 165 223 243 216 162 98 47 33 41 43 35 39 35 28 24 24 27 31 37 39 34 20 13 27 36 29 20 21 29 39 56 71 74 65 55 54 56 53 55 68 79 75 65 81 138 190 191 143 87 62 67 71 67 68 76 76 62 46 38 40 45 43 32 18 8 10 20 32 41 42 27 14 35 68 81 88 111 157 206 230 219 184 137 84 48 40 32 34 32 29 31 33 30 26 28 32 33 30 33 41 35 21 13 14 27 46 65 77 73 58 51 59 67 66 62 61 64 67 71 89 130 171 184 163 119 80 75 82 87 87 81 66 49 42 47 52 50 42 35 31 27 26 27 29 32 37 37 15 11 47 68 76 88 104 129 173 210 201 139 59 20 42 32 33 34 36 37 33 25 22 27 29 31 39 44 39 23 14 25 37 52 74 90 91 78 66 63 66 69 75 80 78 72 67 61 67 98 138 167 171 140 99 84 85 84 78 70 60 49 40 34 31 29 28 28 29 28 27 27 24 21 27 37 33 16 21 41 58 82 89 97 148 194 171 129 123 110 67 35 32 28 28 30 33 34 34 33 31 33 38 41 34 22 30 55 72 85 90 86 77 71 67 65 70 81 89 87 78 73 70 60 50 61 91 122 134 121 91 69 65 71 78 83 82 73 60 45 31 27 27 26 26 26 28 28 18 9 8 15 23 29 27 13 25 76 90 61 78 166 182 143 112 80 31 35 28 31 39 43 40 35 31 29 29 36 49 52 42 45 75 93 98 97 90 79 72 71 72 80 91 96 89 78 76 84 90 84 64 50 60 80 92 88 73 62 61 64 64 68 72 68 55 43 27 19 29 31 20 17 27 37 37 32 24 14 9 17 36 49 42 32 46 54 57 92 133 145 137 104 53 31 30 31 33 35 34 31 28 27 32 44 54 53 52 72 93 100 96 85 77 82 94 100 96 92 93 97 94 84 76 76 80 82 76 65 58 61 66 71 72 70 69 69 68 71 77 73 58 49 37 9 10 23 23 22 26 31 33 33 30 26 25 23 19 22 35 42 25 10 31 54 71 85 88 73 50 36 35 30 28 31 32 28 26 30 39 44 41 42 60 83 94 99 102 103 101 100 98 93 87 84 88 94 95 89 79 74 75 78 80 80 81 82 86 90 92 88 80 72 70 74 82 83 70 54 39 16 9 17 16 9 13 26 33 32 29 28 28 25 22 24 31 40 41 24 11 28 46 61 73 68 52 32 35 35 33 31 30 32 35 41 45 45 49 68 88 95 92 89 94 101 103 99 91 85 86 90 95 99 99 93 82 73 69 73 78 80 81 82 84 88 93 97 100 98 94 93 99 101 87 64 48 32 10 11 19 19 21 28 34 34 32 32 31 28 25 29 35 39 38 31 21 21 37 55 66 65 53 33 29 25 27 35 41 46 53 60 62 64 73 87 99 103 102 102 103 104 100 93 87 87 91 96 94 87 82 80 78 74 69 69 74 81 86 90 93 92 87 86 91 100 106 108 108 108 99 75 54 41 21 11 18 24 26 31 34 33 30 30 33 34 33 33 35 37 38 38 37 36 36 37 38 39 39 33 28 26 33 45 53 56 56 59 66 81 100 112 111 106 102 100 98 96 95 94 90 88 91 98 100 96 88 82 80 80 81 82 83 84 83 81 83 86 86 82 79 83 96 112 117 109 96 80 68 55 31 12 21 32 30 26 25 27 31 35 36 36 38 41 40 33 30 35 41 39 31 27 32 43 45 35 31 30 34 45 62 79 90 95 99 100 97 95 97 99 96 90 87 89 94 96 94 95 100 102 95 85 79 83 91 96 91 80 72 72 78 85 88 88 88 87 87 87 91 100 108 112 106 91 74 63 44 13 15 33 26 12 9 16 27 34 34 31 32 36 36 31 29 36 45 46 41 34 22 16 29 46 48 50 50 50 51 47 36 25 22 31 43 46 34 19 16 19 21 20 20 26 35 37 33 30 33 43 46 34 31 41 40 33 29 22 10 14 23 32 38 36 29 21 14 16 35 63 79 61 20 15 26 39 53 55 45 31 20 14 17 27 32 31 27 28 26 17 23 38 40 35 32 40 61 81 90 38 43 47 46 40 31 25 26 32 37 40 42 37 27 18 16 22 29 27 22 17 17 20 21 17 12 9 13 24 32 36 35 30 25 22 20 22 27 31 31 30 29 28 26 25 30 40 47 39 19 12 15 27 40 35 22 21 30 36 30 16 10 13 16 17 16 10 12 30 50 58 56 55 60 67 76 26 31 38 38 29 21 25 33 36 31 23 20 23 29 31 25 18 20 24 23 20 17 21 29 32 26 17 16 24 29 27 22 18 16 17 18 15 16 21 26 26 25 24 22 17 19 28 36 34 23 13 17 32 43 41 33 30 32 31 25 19 16 14 15 12 6 9 16 31 55 69 70 69 72 75 80 26 32 37 33 27 26 28 27 25 22 23 23 23 25 28 28 23 16 12 13 16 23 30 37 40 37 34 34 36 35 28 19 11 11 16 18 13 10 16 24 27 22 16 13 15 22 30 33 31 26 22 32 47 51 43 33 29 27 22 15 10 10 14 15 15 11 7 10 24 43 60 68 72 77 87 95 25 23 22 21 21 23 23 23 26 31 33 28 20 16 17 22 27 28 24 20 16 14 14 16 22 30 35 35 33 33 34 31 25 19 17 12 11 19 25 25 22 17 18 24 29 36 42 41 28 11 12 32 54 62 55 47 41 36 26 17 14 14 11 10 11 12 10 9 10 20 41 58 68 75 85 95 33 27 25 26 26 22 18 20 27 33 34 31 27 22 16 16 21 27 25 18 16 17 21 24 23 24 27 29 32 35 38 39 35 26 17 9 9 18 25 25 19 15 20 26 27 28 33 34 18 11 23 44 67 75 60 40 34 32 16 10 16 14 10 14 19 23 22 16 6 5 19 36 53 65 71 75 65 46 34 29 23 15 12 17 26 35 36 31 26 26 25 23 24 29 32 31 28 28 33 37 33 26 21 23 28 32 37 41 41 34 24 18 18 24 29 26 20 19 24 28 28 27 27 27 14 13 31 51 68 78 69 39 16 20 21 18 22 18 13 17 24 26 21 15 14 14 11 14 27 41 49 52 109 87 59 37 25 20 21 26 31 34 34 33 29 24 20 22 33 42 44 42 41 42 45 49 50 45 33 24 22 27 31 33 35 36 32 25 21 21 24 25 21 19 24 28 29 28 28 23 14 20 38 52 63 68 61 40 23 28 32 26 23 22 19 20 24 23 17 13 14 14 7 2 8 23 37 40 112 109 93 66 40 29 28 25 25 29 33 36 33 26 19 23 37 46 48 41 37 37 37 40 45 47 43 35 30 29 27 26 29 35 35 27 16 16 25 32 32 31 32 31 26 23 23 21 24 37 51 55 51 45 40 33 28 24 21 19 19 24 26 20 14 13 13 18 23 20 14 12 14 22 31 34 94 102 104 88 53 26 25 27 25 32 36 34 29 23 24 34 42 41 36 32 38 43 43 42 41 42 42 37 31 26 25 25 28 32 32 26 21 23 32 41 44 43 36 27 22 22 26 31 34 38 40 38 31 25 23 22 20 16 12 10 11 17 21 15 8 7 6 13 22 23 24 24 22 25 30 30 93 100 104 92 60 26 19 29 23 20 40 53 44 30 28 37 41 36 31 36 45 47 44 43 41 36 31 29 30 31 32 31 30 31 30 28 27 28 33 39 41 38 31 26 27 30 31 30 27 28 32 35 36 34 24 13 13 18 21 20 18 15 12 10 12 19 22 19 17 15 19 23 24 23 22 22 85 94 101 96 73 42 23 23 21 28 61 81 74 54 37 29 30 30 32 40 47 47 41 39 38 32 25 22 26 32 36 33 28 24 22 21 23 28 35 37 34 28 24 27 32 37 37 31 24 22 26 32 38 36 24 20 26 28 26 21 17 14 12 10 13 25 34 29 18 12 15 23 27 24 16 16 75 85 95 95 84 69 62 61 53 48 55 63 56 41 31 26 27 32 39 47 51 49 42 33 26 24 25 27 27 28 28 28 29 31 30 28 28 32 38 40 38 33 32 34 37 40 38 30 20 17 24 33 40 40 33 30 28 21 13 9 13 22 27 26 25 27 28 24 17 18 26 31 31 27 22 24 77 82 90 97 97 90 82 76 70 64 56 39 19 12 14 16 21 30 41 46 48 44 36 26 18 18 23 28 30 31 34 36 37 36 35 35 38 40 42 43 44 42 37 32 32 37 37 27 12 17 35 44 41 37 32 27 25 21 16 12 14 24 32 33 31 26 21 17 17 21 27 36 42 39 31 27 73 78 87 94 96 87 70 60 67 80 75 42 11 13 19 14 13 13 14 18 17 26 27 18 12 21 25 26 28 32 37 40 40 39 36 34 34 37 41 46 49 46 34 24 24 28 27 18 14 29 48 50 38 23 18 21 26 27 23 20 17 17 21 27 30 31 25 20 18 19 23 32 39 37 28 22 70 72 78 85 85 78 69 66 72 80 72 38 9 18 24 19 19 17 10 6 4 12 21 17 7 14 21 22 22 27 33 36 38 38 35 35 34 35 37 41 42 33 21 19 25 25 14 4 13 33 47 45 27 11 10 16 15 12 13 19 23 21 17 19 26 30 28 24 21 17 17 22 30 33 29 26 72 73 78 83 82 78 75 73 71 69 59 35 14 13 18 20 25 26 20 16 13 10 15 15 12 11 12 16 23 30 36 37 32 27 29 34 37 38 40 43 40 34 31 35 35 16 10 14 26 39 41 27 12 8 12 14 11 9 9 15 26 33 32 27 24 23 24 25 22 18 16 19 27 39 41 35 77 76 76 78 80 79 76 72 70 70 66 54 32 14 18 31 39 38 33 30 24 17 14 13 11 11 10 11 24 39 49 47 38 35 37 35 34 37 42 43 35 27 33 38 20 9 25 40 47 46 28 12 10 12 11 10 14 17 16 19 29 41 44 36 25 20 23 24 22 24 29 29 28 34 39 39 77 75 76 79 83 84 78 70 69 75 79 66 36 9 9 28 41 39 30 25 26 22 17 16 13 11 9 12 20 42 59 58 49 47 48 41 29 28 40 53 53 36 14 16 17 36 52 50 51 44 18 13 17 11 9 11 13 19 22 23 28 36 35 24 16 18 23 25 22 21 23 26 28 29 32 32 78 82 85 84 82 84 84 78 70 69 71 53 21 9 13 19 32 32 21 14 18 18 15 18 21 17 9 7 10 30 53 61 58 52 52 50 37 27 32 49 62 54 33 33 46 59 60 43 32 25 23 33 27 13 11 12 16 18 14 15 22 26 21 16 20 25 21 14 10 9 12 19 25 28 29 29 85 87 86 82 81 86 91 89 78 67 56 31 9 29 25 8 13 23 24 16 14 19 22 20 17 14 9 4 13 25 38 47 49 43 38 38 38 37 35 36 40 42 49 55 54 49 44 31 16 9 16 23 19 15 9 10 22 20 10 9 12 16 19 21 22 17 11 8 8 8 12 24 37 36 28 32 86 89 89 88 86 87 89 88 80 68 48 18 27 88 120 115 87 54 28 14 13 19 22 19 14 9 8 10 15 20 21 22 24 23 21 22 28 37 40 34 27 28 36 43 40 30 24 25 28 22 10 9 15 19 16 16 19 14 12 12 12 20 34 40 31 17 10 11 15 17 23 36 45 37 29 45 85 88 90 87 85 89 93 87 73 55 31 28 86 164 230 239 180 101 46 18 13 12 14 17 14 9 6 10 13 14 12 12 16 18 19 23 27 31 33 26 16 15 21 24 20 13 14 28 40 30 19 20 14 3 10 25 23 12 6 11 21 24 37 62 69 57 41 33 34 36 39 44 44 40 48 73 84 85 86 85 86 92 98 90 66 34 20 72 154 193 204 190 152 108 66 27 13 15 21 17 9 7 5 10 19 20 16 13 13 18 21 20 20 23 27 22 16 15 15 11 7 5 11 27 35 32 40 53 53 46 39 29 25 24 17 20 29 23 30 64 84 82 76 75 62 44 47 59 60 60 76 99 91 90 89 87 81 80 85 83 55 23 46 121 185 205 185 158 140 116 74 36 24 28 29 15 5 4 10 13 10 11 17 18 16 22 24 20 15 13 14 11 10 13 16 16 16 15 14 22 29 37 66 118 174 200 161 81 31 18 19 35 43 30 33 63 78 78 73 59 34 34 71 90 80 71 88 109 94 93 89 80 74 77 82 75 48 36 76 125 159 167 151 129 110 88 61 39 29 30 27 15 7 6 14 15 8 6 12 17 18 16 17 17 16 15 14 10 7 11 17 22 27 27 22 18 29 51 87 145 214 263 255 191 107 40 12 23 41 40 39 58 73 74 64 44 30 56 99 104 85 78 94 112 89 88 81 73 74 85 89 72 51 53 79 105 108 88 68 64 68 65 50 35 30 31 27 14 9 8 8 11 12 9 8 9 8 8 9 10 15 16 10 7 7 15 23 23 27 33 26 17 29 60 104 141 165 198 234 238 196 127 57 19 29 51 52 49 58 68 68 69 78 93 107 102 87 89 103 113 83 80 75 71 72 79 82 73 59 58 68 85 87 70 58 63 65 59 45 32 30 31 25 15 13 15 16 19 18 16 14 5 6 11 11 5 9 13 6 7 11 15 22 26 32 40 35 32 46 60 84 118 136 145 177 221 237 208 144 69 28 36 50 46 49 67 80 91 110 115 100 83 84 99 107 108 71 70 74 75 73 70 71 71 66 56 50 56 60 58 68 76 65 48 36 25 21 22 25 25 21 20 24 29 24 18 16 10 15 20 18 11 11 14 16 10 13 16 16 20 22 33 44 49 59 68 70 83 107 123 138 171 217 242 224 166 85 32 34 51 57 71 87 97 112 116 98 79 82 97 106 108 71 76 79 78 76 76 76 66 49 32 26 35 43 47 57 61 46 25 18 20 21 30 33 28 19 14 7 13 16 12 11 12 21 21 14 16 11 6 12 11 14 21 15 15 11 18 33 39 49 64 70 71 84 106 121 132 159 204 243 243 191 101 36 32 50 67 76 85 93 95 89 89 100 109 113 114 75 84 90 91 89 85 75 55 36 27 29 36 39 38 39 46 47 35 21 22 27 35 35 26 18 18 12 9 10 15 19 14 12 14 13 15 12 7 7 15 31 34 16 20 26 21 26 37 48 55 57 57