<?xml version="1.0"?>
<VTKFile type="PolyData" version="0.1" byte_order="LittleEndian">
  <PolyData>
    <Piece NumberOfPoints="4" NumberOfVerts="0" NumberOfLines="0" NumberOfStrips="0" NumberOfPolys="4">
      <PointData Scalars="escalar">
        <DataArray type="Float32" Name="escalar" format="ascii">0 1 2 3</DataArray>
      </PointData>
      <Points>
        <DataArray type="Float32" NumberOfComponents="3" format="ascii">0 0 0 1 0 0 0 1 0 0 0 1</DataArray>
      </Points>
      <Polys>
        <DataArray type="Int32" Name="connectivity" format="ascii">0 1 2 0 1 3 0 2 3 1 2 3</DataArray>
        <DataArray type="Int32" Name="offsets" format="ascii">3 6 9 12</DataArray>
      </Polys>
    </Piece>
  </PolyData>
</VTKFile>