<?xml version="1.0"?>
<VTKFile type="ImageData" version="0.1" byte_order="LittleEndian">
  <ImageData WholeExtent="0 8 0 8 0 8" Origin="0 0 0" Spacing="1 1 1">
    <Piece Extent="0 8 0 8 0 8">
      <PointData Scalars="intensidad">
        <DataArray type="Float32" Name="intensidad" format="ascii">0 0 0 0 0 0 0 0 0 0 0 0 0 0 0 0 0 0 0 0 0 0 1.6 0 0 0 0 0 0 0 6.7 9.3 6.7 0 0 0 0 0 1.6 9.3 12 9.3 1.6 0 0 0 0 0 6.7 9.3 6.7 0 0 0 0 0 0 0 1.6 0 0 0 0 0 0 0 0 0 0 0 0 0 0 0 0 0 0 0 0 0 0 0 0 0 0 0 0 0 0 0 0 0 0 4.1 6.7 4.1 0 0 0 0 0 9.3 17.7 20.7 17.7 9.3 0 0 0 4.1 17.7 27 30.4 27 17.7 4.1 0 0 6.7 20.7 30.4 34 30.4 20.7 6.7 0 0 4.1 17.7 27 30.4 27 17.7 4.1 0 0 0 9.3 17.7 20.7 17.7 9.3 0 0 0 0 0 4.1 6.7 4.1 0 0 0 0 0 0 0 0 0 0 0 0 0 0 0 0 1.6 0 0 0 0 0 0 9.3 17.7 20.7 17.7 9.3 0 0 0 9.3 23.8 34 37.8 34 23.8 9.3 0 0 17.7 34 46.1 50.8 46.1 34 17.7 0 1.6 20.7 37.8 50.8 56 50.8 37.8 20.7 1.6 0 17.7 34 46.1 50.8 46.1 34 17.7 0 0 9.3 23.8 34 37.8 34 23.8 9.3 0 0 0 9.3 17.7 20.7 17.7 9.3 0 0 0 0 0 0 1.6 0 0 0 0 0 0 0 6.7 9.3 6.7 0 0 0 0 4.1 17.7 27 30.4 27 17.7 4.1 0 0 17.7 34 46.1 50.8 46.1 34 17.7 0 6.7 27 46.1 61.9 68.9 61.9 46.1 27 6.7 9.3 30.4 50.8 68.9 78 68.9 50.8 30.4 9.3 6.7 27 46.1 61.9 68.9 61.9 46.1 27 6.7 0 17.7 34 46.1 50.8 46.1 34 17.7 0 0 4.1 17.7 27 30.4 27 17.7 4.1 0 0 0 0 6.7 9.3 6.7 0 0 0 0 0 1.6 9.3 12 9.3 1.6 0 0 0 6.7 20.7 30.4 34 30.4 20.7 6.7 0 1.6 20.7 37.8 50.8 56 50.8 37.8 20.7 1.6 9.3 30.4 50.8 68.9 78 68.9 50.8 30.4 9.3 12 34 56 78 100 78 56 34 12 9.3 30.4 50.8 68.9 78 68.9 50.8 30.4 9.3 1.6 20.7 37.8 50.8 56 50.8 37.8 20.7 1.6 0 6.7 20.7 30.4 34 30.4 20.7 6.7 0 0 0 1.6 9.3 12 9.3 1.6 0 0 0 0 0 6.7 9.3 6.7 0 0 0 0 4.1 17.7 27 30.4 27 17.7 4.1 0 0 17.7 34 46.1 50.8 46.1 34 17.7 0 6.7 27 46.1 61.9 68.9 61.9 46.1 27 6.7 9.3 30.4 50.8 68.9 78 68.9 50.8 30.4 9.3 6.7 27 46.1 61.9 68.9 61.9 46.1 27 6.7 0 17.7 34 46.1 50.8 46.1 34 17.7 0 0 4.1 17.7 27 30.4 27 17.7 4.1 0 0 0 0 6.7 9.3 6.7 0 0 0 0 0 0 0 1.6 0 0 0 0 0 0 9.3 17.7 20.7 17.7 9.3 0 0 0 9.3 23.8 34 37.8 34 23.8 9.3 0 0 17.7 34 46.1 50.8 46.1 34 17.7 0 1.6 20.7 37.8 50.8 56 50.8 37.8 20.7 1.6 0 17.7 34 46.1 50.8 46.1 34 17.7 0 0 9.3 23.8 34 37.8 34 23.8 9.3 0 0 0 9.3 17.7 20.7 17.7 9.3 0 0 0 0 0 0 1.6 0 0 0 0 0 0 0 0 0 0 0 0 0 0 0 0 4.1 6.7 4.1 0 0 0 0 0 9.3 17.7 20.7 17.7 9.3 0 0 0 4.1 17.7 27 30.4 27 17.7 4.1 0 0 6.7 20.7 30.4 34 30.4 20.7 6.7 0 0 4.1 17.7 27 30.4 27 17.7 4.1 0 0 0 9.3 17.7 20.7 17.7 9.3 0 0 0 0 0 4.1 6.7 4.1 0 0 0 0 0 0 0 0 0 0 0 0 0 0 0 0 0 0 0 0 0 0 0 0 0 0 0 0 0 0 0 0 0 0 1.6 0 0 0 0 0 0 0 6.7 9.3 6.7 0 0 0 0 0 1.6 9.3 12 9.3 1.6 0 0 0 0 0 6.7 9.3 6.7 0 0 0 0 0 0 0 1.6 0 0 0 0 0 0 0 0 0 0 0 0 0 0 0 0 0 0 0 0 0 0</DataArray>
      </PointData>
      <CellData></CellData>
    </Piece>
  </ImageData>
</VTKFile>
