# vtk DataFile Version 3.0
tetraedro
ASCII
DATASET POLYDATA
POINTS 4 float
0 0 0
1 0 0
0 1 0
0 0 1
POLYGONS 4 16
3 0 1 2
3 0 1 3
3 0 2 3
3 1 2 3
POINT_DATA 4
SCALARS escalar float 1
LOOKUP_TABLE default
0 1 2 3
